# vtk DataFile Version 1.0
3D triangulation data
ASCII

DATASET POLYDATA
POINTS 199 float
3202.5      270.5 0.00
2715.6001         0.00 0.00
4889.3999         0.00 0.00
4402.5      270.5 0.00
3157.5       293.00 0.00
1657.5       293.00  0.00
1650.00       290.00 0.00
1612.5       275.00 0.00
412.5       275.00 0.00
0.00        0.00 0.00
3121.3501 225.416672 0.00
3040.19995 180.333328 0.00
2959.05005     135.25 0.00
2877.8999 90.1666641 0.00
2796.75 45.0833321 0.00
2814.40918  0.00 0.00
2913.21826  0.00 0.00
3012.02734  0.00 0.00
3110.83643         0.00 0.00
3209.64551         0.00 0.00
3308.45459         0.00 0.00
3407.26367         0.00 0.00
3506.07275         0.00 0.00
3604.88184         0.00 0.00
3703.69092         0.00 0.00
3802.5         0.00 0.00
3901.30908         0.00 0.00
4000.11816         0.00 0.00
4098.92725         0.00 0.00
4197.73633         0.00 0.00
4296.54541         0.00 0.00
4395.35449         0.00 0.00
4494.16357         0.00 0.00
4592.97266         0.00 0.00
4691.78174         0.00 0.00
4790.59082         0.00 0.00
4808.25 45.0833321 0.00
4727.1001 90.1666641 0.00
4645.9502     135.25 0.00
4564.7998 180.333328 0.00
4483.6499 225.416672 0.00
4302.5      270.5 0.00
4202.5      270.5 0.00
4102.5      270.5 0.00
4002.5      270.5 0.00
3902.5      270.5 0.00
3802.5      270.5 0.00
3702.5      270.5 0.00
3602.5      270.5 0.00
3502.5      270.5 0.00
3402.5      270.5 0.00
3302.5      270.5 0.00
3057.5       293.00 0.00
2957.5       293.00 0.00
2857.5       293.00 0.00
2757.5       293.00 0.00
2657.5       293.00 0.00
2557.5       293.00 0.00
2457.5       293.00 0.00
2357.5       293.00 0.00
2257.5       293.00 0.00 
2157.5       293.00 0.00
2057.5       293.00 0.00
1957.5       293.00 0.00
1857.5       293.00 0.00
1757.5       293.00 0.00
1512.5       275.00 0.00
1412.5       275.00 0.00
1312.5       275.00 0.00
1212.5       275.00 0.00
1112.5       275.00 0.00
1012.5       275.00 0.00
912.5       275.00 0.00
812.5       275.00 0.00
712.5       275.00 0.00
612.5       275.00 0.00
512.5       275.00 0.00
330.00       220.00 0.00
247.5       165.00 0.00
165.00       110.00  0.00
82.5        55.00 0.00
100.577774         0.00 0.00
201.155548         0.00 0.00
301.733337         0.00 0.00
402.311096         0.00 0.00
502.888885         0.00 0.00
603.466675         0.00 0.00
704.044434         0.00 0.00 
804.622192         0.00 0.00
905.200012         0.00 0.00
1005.77777         0.00 0.00
1106.35559         0.00 0.00
1206.93335         0.00 0.00
1307.51111         0.00 0.00
1408.08887         0.00 0.00
1508.66663         0.00 0.00
1609.24438         0.00 0.00
1709.82227         0.00 0.00
1810.40002         0.00 0.00
1910.97778         0.00 0.00
2011.55554         0.00 0.00
2112.1333         0.00 0.00
2212.71118         0.00 0.00
2313.28882         0.00 0.00
2413.8667         0.00 0.00
2514.44434         0.00 0.00
2615.02222         0.00 0.00
3192.04321 160.352753 0.00
3832.1582 90.1791916 0.00
3047.56763 87.7898254 0.00
3114.8689 121.368736 0.00
4551.66113 88.2962799 0.00
4440.09912 85.9057159 0.00
4335.86719 90.2557678 0.00
4388.27588 182.393555 0.00
4232.104 90.5522537 0.00
4131.12305 90.6186295 0.00
4031.02368 90.7560425 0.00
3932.03735  90.495163 0.00
3733.57739 84.2996826 0.00
3652.5813 67.4138947 0.00
3571.51514 84.0413971 0.00
3471.7168 92.3363495 0.00
3360.79443 106.715172 0.00
3254.61938 87.2164764 0.00
3357.55249 203.168076 0.00
3439.31006 187.448471 0.00
3539.64331 178.339157 0.00
3652.1582 161.929169 0.00
3764.49634 176.360001 0.00
3866.20361 179.886353 0.00
3966.32153 180.564987 0.00
4066.15967 180.695923 0.00
4167.20557 180.671173 0.00
4271.40869 180.812119 0.00
4641.89307  62.742588 0.00
4485.69727 152.469116 0.00
3278.33496 183.075409 0.00
3176.40259   73.78759 0.00
1650.35608 259.177826 0.00
2712.81299 81.7753525 0.00
2937.43774 216.251923 0.00
2795.21802 134.721603 0.00
2871.06738 181.388199 0.00
436.944977 189.393448 0.00
348.035065 105.789825 0.00
252.684784 76.1579666 0.00
1692.18042  257.35025 0.00
1560.84875 214.767548 0.00
1280.47778  182.90033 0.00
1795.27881 193.435287 0.00
1906.15649 193.719223 0.00
2008.51672 193.758163 0.00
2109.15479  193.76416 0.00
2209.45313 193.770554 0.00
2309.6709 193.805405 0.00
2409.78125 194.014099 0.00
2508.6853 196.521683 0.00
2605.84692 199.003815 0.00
2709.87524  190.99855 0.00
2798.23218 218.621674 0.00
556.26532 166.643784 0.00
673.652588 179.415695 0.00
777.315918 182.058273 0.00
878.621704 182.557907 0.00
979.06073 182.651016 0.00
1079.81165 182.519409 0.00
1179.72437 182.754608 0.00
1381.27173 187.161148 0.00
1476.48853  200.76413 0.00
638.256409 84.2025757 0.00
553.236145 68.1645813 0.00
466.613586 88.3319397 0.00
2557.7959 101.346115 0.00
2461.08862  97.806572 0.00
2361.55151 96.7349548 0.00
2261.30957 96.5109634 0.00
2160.91016 96.4661331 0.00
2060.37573   96.45755 0.00
1959.24353  96.455162 0.00
1856.62268 95.7534485 0.00
1755.77026 89.7782516 0.00
1659.07996 83.0429459 0.00
1563.8949  83.083786 0.00
1459.8678 102.240456 0.00
1347.30432 93.8436813 0.00
1244.73303 91.6410522 0.00
1143.86548 91.2214279 0.00
1043.33105 91.1345673 0.00
942.757385 91.1176147 0.00
841.631042 90.9733658 0.00
739.920471 89.4416504 0.00
1621.59473 225.551285 0.00
1667.98547 215.643829 0.00
1723.26294 224.568665 0.00
2640.27051 114.624763 0.00
1702.65747 161.545441 0.00
1535.13342 152.731918 0.00
1615.88501 162.338104 0.00

TRIANGLE_STRIPS 294 1176
3	124	19	20
3	129	119	108
3	14	1	15
3	15	13	14
3	16	12	13
3	109	12	17
3	110	11	109
3	35	2	36
3	37	34	35
3	135	38	111
3	136	112	111
3	112	32	111
3	113	31	112
3	134	115	113
3	133	116	115
3	132	117	116
3	131	118	117
3	118	27	117
3	128	120	119
3	128	121	120
3	127	122	121
3	126	123	122
3	137	125	51
3	137	123	125
3	138	124	107
3	109	17	18
3	16	17	12
3	15	16	13
3	136	114	112
3	136	111	39
3	111	38	39
3	135	37	38
3	36	37	35
3	137	0	107
3	126	125	123
3	127	126	122
3	128	127	121
3	129	128	119
3	130	129	108
3	130	108	118
3	132	131	117
3	133	132	116
3	134	133	115
3	134	113	114
3	107	0	10
3	110	109	18
3	108	25	26
3	118	26	27
3	138	18	19
3	109	11	12
3	110	107	10
3	110	10	11
3	111	32	33
3	135	111	33
3	114	40	3
3	112	31	32
3	114	113	112
3	113	30	31
3	114	3	41
3	134	41	42
3	115	29	30
3	115	30	113
3	116	28	29
3	116	29	115
3	117	27	28
3	117	28	116
3	131	130	118
3	118	108	26
3	119	24	25
3	119	25	108
3	120	23	24
3	120	24	119
3	121	22	23
3	121	23	120
3	122	21	22
3	122	22	121
3	123	20	21
3	123	21	122
3	138	107	110
3	124	20	123
3	125	50	51
3	137	51	0
3	126	49	50
3	126	50	125
3	127	48	49
3	127	49	126
3	128	47	48
3	128	48	127
3	129	46	47
3	129	47	128
3	130	45	46
3	130	46	129
3	131	44	45
3	131	45	130
3	132	43	44
3	132	44	131
3	133	42	43
3	133	43	132
3	134	114	41
3	134	42	133
3	135	33	34
3	135	34	37
3	136	39	40
3	136	40	114
3	137	107	124
3	137	124	123
3	138	110	18
3	138	19	124
3	160	159	142
3	158	56	57
3	198	193	192
3	147	5	139
3	182	96	97
3	185	168	149
3	143	12	141
3	141	11	53
3	52	11	10
3	52	10	4
3	10	0	4
3	139	5	6
3	180	99	179
3	151	64	150
3	152	63	151
3	153	62	152
3	154	61	153
3	155	60	154
3	156	59	155
3	157	58	156
3	174	173	157
3	159	140	142
3	160	143	54
3	141	53	54
3	52	53	11
3	145	144	77
3	144	76	8
3	170	162	161
3	191	163	162
3	190	164	163
3	189	165	164
3	188	166	165
3	187	167	166
3	188	187	166
3	184	169	168
3	169	66	67
3	146	145	78
3	146	79	82
3	81	79	80
3	81	80	9
3	140	106	1
3	195	173	106
3	175	156	155
3	175	174	156
3	176	175	155
3	177	176	154
3	178	177	153
3	179	178	152
3	181	180	150
3	193	139	192
3	196	150	194
3	198	197	183
3	185	184	168
3	186	185	149
3	186	149	167
3	187	186	167
3	189	188	165
3	190	189	164
3	191	190	163
3	191	162	170
3	171	170	161
3	172	161	144
3	172	144	145
3	172	145	84
3	146	82	83
3	81	82	79
3	139	6	7
3	192	7	148
3	140	1	14
3	142	140	14
3	143	142	13
3	141	12	11
3	142	14	13
3	143	13	12
3	143	141	54
3	160	54	55
3	172	171	161
3	144	8	77
3	145	77	78
3	145	83	84
3	146	83	145
3	146	78	79
3	181	98	180
3	147	65	5
3	148	7	66
3	169	67	168
3	149	68	69
3	167	69	70
3	150	64	65
3	194	65	147
3	180	179	151
3	151	63	64
3	179	152	151
3	152	62	63
3	178	153	152
3	153	61	62
3	177	154	153
3	154	60	61
3	176	155	154
3	155	59	60
3	174	105	173
3	156	58	59
3	173	158	157
3	157	57	58
3	195	159	158
3	158	57	157
3	159	55	56
3	159	56	158
3	160	55	159
3	160	142	143
3	161	75	76
3	161	76	144
3	162	74	75
3	162	75	161
3	163	73	74
3	163	74	162
3	164	72	73
3	164	73	163
3	165	71	72
3	165	72	164
3	166	70	71
3	166	71	165
3	167	149	69
3	167	70	166
3	168	67	68
3	168	68	149
3	197	184	183
3	169	148	66
3	170	86	87
3	191	170	87
3	171	85	86
3	171	86	170
3	172	84	85
3	172	85	171
3	173	105	106
3	195	106	140
3	174	157	156
3	174	104	105
3	175	103	104
3	175	104	174
3	176	102	103
3	176	103	175
3	177	101	102
3	177	102	176
3	178	100	101
3	178	101	177
3	179	99	100
3	179	100	178
3	180	151	150
3	180	98	99
3	196	194	193
3	181	97	98
3	198	183	182
3	182	97	181
3	183	95	96
3	183	96	182
3	184	94	95
3	184	95	183
3	185	93	94
3	185	94	184
3	186	92	93
3	186	93	185
3	187	91	92
3	187	92	186
3	188	90	91
3	188	91	187
3	189	89	90
3	189	90	188
3	190	88	89
3	190	89	189
3	191	87	88
3	191	88	190
3	192	139	7
3	198	192	148
3	196	182	181
3	193	147	139
3	194	150	65
3	194	147	193
3	195	140	159
3	195	158	173
3	198	196	193
3	196	181	150
3	197	148	169
3	197	169	184
3	198	148	197
3	198	182	196
POINT_DATA 199
SCALARS Temperature_field(°C) float
LOOKUP_TABLE default
25
24.95945186
24.99999704
25
25
25
5
5
5
5
24.9984308
24.99594068
24.99178222
24.98523055
24.97489391
24.97652635
24.98617422
24.99176595
24.99524146
24.99731397
24.99845309
24.9991196
24.99950696
24.99972356
24.99984392
24.99991084
24.99994941
24.99997133
24.99998365
24.9999905
24.99999418
24.99999599
24.99999673
24.99999698
24.99999704
24.99999704
24.99999704
24.99999704
24.99999708
24.99999724
24.99999792
25
25
25
25
25
25
25
25
25
25
25
25
25
25
25
25
25
25
25
25
25
25
25
25
25
5
5
5
5
5
5
5
5
5
5
5
5.007696231
5.009222777
5.008498009
5.006410747
5.006484953
5.008702034
5.01071834
5.013990548
5.020497574
5.03371728
5.05844841
5.102749919
5.181573134
5.321376706
5.569085434
6.007490781
6.781669759
8.130744424
10.30156602
13.40032881
16.89904249
19.84612888
21.8817952
23.15547478
23.91754085
24.36657745
24.62991637
24.78429169
24.87510779
24.92929189
24.99810962
24.99993479
24.99411251
24.99630287
24.99999704
24.99999673
24.99999572
24.9999978
24.99999316
24.99998824
24.9999793
24.99996341
24.99988227
24.99980435
24.99970301
24.99948534
24.99906325
24.99814749
24.99954273
24.99966485
24.99979575
24.99987636
24.99994237
24.99996896
24.99998272
24.99999026
24.99999446
24.99999676
24.99999704
24.99999733
24.99905621
24.99701717
16.68301064
24.96342886
24.99517253
24.98059598
24.99022209
5.008007483
5.010681624
5.009565672
21.1332463
8.788378608
5.780592642
21.58809378
23.27450136
24.02767502
24.43726509
24.67182744
24.8082614
24.88812787
24.93603542
24.96382002
24.97868537
24.99014842
5.015427513
5.025628865
5.044759725
5.079082021
5.139819262
5.248363538
5.43821475
6.360728042
7.21610109
5.036179254
5.024339869
5.015631976
24.91533441
24.85505355
24.75160007
24.57495642
24.27306399
23.7564355
22.86661074
21.30975093
18.72217378
15.20502387
11.59118944
8.592991137
6.930597788
6.084744433
5.612402462
5.345929375
5.195354601
5.110106266
5.062343046
11.96874374
16.6543308
20.53631061
24.94910263
17.71604949
9.733368401
12.99758772

