# vtk DataFile Version 1.0
3D triangulation data
ASCII

DATASET POLYDATA
POINTS 337 float
42.5999985	0	0
529.5	270.5	0
484.5	293	0
469.5	293	0
462	290	0
424.5	275	0
412.5	275	0
0	0	0
1028.40002	0	0
541.5	270.5	0
64.7318192	12.295455	0
86.8636398	24.59091	0
108.995453	36.886364	0
131.127274	49.1818199	0
153.259094	61.477272	0
175.390915	73.772728	0
197.52272	86.0681839	0
219.654541	98.3636398	0
241.786362	110.659088	0
263.918182	122.954544	0
286.049988	135.25	0
308.181824	147.545456	0
330.313629	159.840912	0
352.445465	172.136368	0
374.577271	184.431824	0
396.709076	196.72728	0
418.840912	209.02272	0
440.972717	221.318176	0
463.104553	233.613632	0
485.236359	245.909088	0
507.368195	258.204559	0
507	281.75	0
443.25	282.5	0
391.875	261.25	0
371.25	247.5	0
350.625	233.75	0
330	220	0
309.375	206.25	0
288.75	192.5	0
268.125	178.75	0
247.5	165	0
226.875	151.25	0
206.25	137.5	0
185.625	123.75	0
165	110	0
144.375	96.25	0
123.75	82.5	0
103.125	68.75	0
82.5	55	0
61.875	41.25	0
41.25	27.5	0
20.625	13.75	0
21.2999992	0	0
67.8769226	0	0
93.1538467	0	0
118.430771	0	0
143.707687	0	0
168.984619	0	0
194.261536	0	0
219.538467	0	0
244.815384	0	0
270.092316	0	0
295.369232	0	0
320.646149	0	0
345.923065	0	0
371.200012	0	0
396.476929	0	0
421.753845	0	0
447.030762	0	0
472.307678	0	0
497.584625	0	0
522.861511	0	0
548.138489	0	0
573.415405	0	0
598.692322	0	0
623.969238	0	0
649.246155	0	0
674.523071	0	0
699.799988	0	0
725.076904	0	0
750.353821	0	0
775.630798	0	0
800.907715	0	0
826.184631	0	0
851.461548	0	0
876.738464	0	0
902.015381	0	0
927.292297	0	0
952.569214	0	0
977.84613	0	0
1003.12305	0	0
1006.26819	12.295455	0
984.136353	24.59091	0
962.004517	36.886364	0
939.872742	49.1818199	0
917.740906	61.477272	0
895.60907	73.772728	0
873.477295	86.0681839	0
851.345459	98.3636398	0
829.213623	110.659088	0
807.081848	122.954544	0
784.950012	135.25	0
762.818176	147.545456	0
740.68634	159.840912	0
718.554565	172.136368	0
696.422729	184.431824	0
674.290894	196.72728	0
652.159119	209.02272	0
630.027283	221.318176	0
607.895447	233.613632	0
585.763611	245.909088	0
563.631836	258.204559	0
470.005005	279.543518	0
413.20575	257.930756	0
437.627167	260.708527	0
486.158051	269.33963	0
223.930527	124.709877	0
245.10907	137.553879	0
309.289581	176.902924	0
331.146973	189.86972	0
355.88562	204.168152	0
394.434082	240.808456	0
287.840118	163.616348	0
266.423737	150.520798	0
202.448364	111.635658	0
374.647858	224.909653	0
420.97699	235.749222	0
445.104034	241.804047	0
463.170685	257.859283	0
455.210571	274.122284	0
181.655579	98.9018326	0
379.742889	205.71846	0
397.558624	218.822632	0
163.936111	88.080368	0
535.079102	249.572296	0
485.444183	220.959732	0
462.8367	208.34462	0
440.583649	196.013184	0
418.427704	183.711823	0
396.291138	171.415543	0
374.158264	159.120041	0
352.026184	146.824677	0
329.898468	134.50238	0
307.792938	122.0401	0
285.634277	109.756294	0
263.08197	97.3625031	0
240.329071	85.6767502	0
218.581421	73.7939301	0
197.157364	61.7819633	0
176.007172	49.7062645	0
154.509216	37.1347275	0
131.470657	22.3569584	0
939.888733	23.7680073	0
912.558044	21.9856796	0
887.71167	21.2618332	0
863.463196	21.2697773	0
838.412048	22.262085	0
812.912292	22.2586117	0
787.851746	22.066473	0
762.851196	21.8895302	0
737.691772	21.8933773	0
712.434448	21.8938789	0
687.160828	21.8936806	0
661.88446	21.8934078	0
636.607666	21.8932667	0
611.33075	21.8931637	0
586.053833	21.8929691	0
560.776917	21.8928108	0
535.5	21.8927765	0
510.223083	21.8928833	0
484.946167	21.8930073	0
459.66925	21.8931465	0
434.392334	21.8933067	0
409.115417	21.8934917	0
383.838501	21.8937092	0
358.561584	21.8939686	0
333.284668	21.8942757	0
308.007782	21.8946552	0
282.887115	22.0794945	0
257.981384	22.3944912	0
232.652893	22.7518501	0
206.84494	22.3399982	0
178.888702	23.763586	0
560.282043	233.395691	0
584.475342	220.224518	0
607.977356	208.197723	0
630.385254	195.989365	0
652.567078	183.707977	0
674.707947	171.414886	0
696.841614	159.119949	0
718.973816	146.824738	0
741.10083	134.502075	0
763.201721	122.037613	0
785.331116	109.60453	0
807.891663	96.9792099	0
830.696228	85.2627487	0
852.404663	73.2476654	0
874.15448	60.5756912	0
897.700562	45.5111771	0
509.058502	233.985565	0
963.289001	17.0490551	0
548.138428	43.7874489	0
851.560852	46.3783112	0
649.245911	43.7889938	0
750.513977	43.4327164	0
522.861572	43.7877541	0
497.584747	43.7881165	0
472.307831	43.7885056	0
447.030945	43.7889328	0
421.754059	43.7894287	0
396.524139	43.6680069	0
370.72464	44.1652832	0
345.066467	43.6214027	0
320.1633	43.4713097	0
295.59256	43.8547058	0
271.425995	44.3520241	0
219.34996	47.308136	0
195.649628	40.9799881	0
246.672546	45.1887169	0
573.415283	43.7879181	0
598.692139	43.7883949	0
623.968994	43.7890778	0
674.453735	43.7690086	0
700.226807	44.3845215	0
725.921143	43.7196808	0
775.067078	43.6719246	0
799.385498	43.9584923	0
824.255798	44.6039886	0
107.782875	16.7668457	0
630.849609	170.693008	0
763.191895	95.9984741	0
675.089539	145.885925	0
719.153381	121.357689	0
809.755066	68.5849457	0
440.143921	170.692795	0
351.79425	121.121887	0
284.811768	83.9646225	0
373.856293	133.269394	0
307.632233	96.0693893	0
462.335907	182.956039	0
395.929993	145.795929	0
261.110504	69.0409241	0
484.658905	195.426086	0
418.014526	158.348389	0
329.954651	108.745415	0
608.638	182.877075	0
740.953857	108.940948	0
652.986694	158.363342	0
697.106262	133.37355	0
874.918152	38.9993591	0
785.981567	83.525177	0
585.25592	194.350311	0
508.210083	207.456818	0
558.411194	203.740738	0
155.512177	16.6510544	0
533.724915	219.921127	0
921.552185	40.3847923	0
535.500061	65.6850891	0
560.776733	65.6854935	0
510.223389	65.6858063	0
484.983398	65.6193771	0
586.080139	65.7834473	0
459.132172	66.1778183	0
611.921692	66.4318237	0
637.425049	65.7794418	0
433.564636	65.65905	0
662.127808	65.6313171	0
408.850372	65.3985977	0
687.593506	66.6277084	0
383.349762	66.3750229	0
715.793884	68.7282944	0
355.119995	68.501915	0
739.115173	61.4735718	0
331.680908	61.4386406	0
762.965149	67.6191254	0
307.786255	67.7595139	0
786.630859	61.4719353	0
284.145416	61.7943573	0
833.734497	63.6155319	0
237.208694	64.2016907	0
483.578217	169.632538	0
461.827454	157.004059	0
439.899536	144.783234	0
631.020935	145.032791	0
418.11087	132.284225	0
609.004578	156.966553	0
652.831177	132.461441	0
396.140137	119.215614	0
674.820923	119.497025	0
586.79541	168.860031	0
373.73587	107.567833	0
697.193909	107.865608	0
352.249542	95.7536316	0
718.653503	95.9268494	0
330.737274	83.0447464	0
740.112244	83.1145401	0
505.398834	181.461182	0
564.671814	179.336792	0
565.046143	154.790268	0
504.286591	156.220505	0
548.105408	87.9423065	0
573.5177	87.5255356	0
522.596008	88.2450562	0
698.786011	86.0861511	0
497.383026	87.588089	0
396.311707	90.5223236	0
674.665039	90.8169708	0
420.257629	83.7500839	0
471.693054	88.5540085	0
443.468811	91.07901	0
650.696289	84.0017242	0
627.408325	91.283287	0
599.221497	88.7796173	0
586.534424	142.14447	0
608.93457	130.899704	0
483.767426	142.451904	0
630.418701	119.112862	0
461.787262	130.717575	0
440.463745	118.858009	0
651.806763	106.195557	0
419.125488	105.951546	0
372.153381	85.7441406	0
531.233337	190.518372	0
563.2146	128.906769	0
507.08902	130.106766	0
543.220154	166.7957	0
561.131714	106.80706	0
535.352051	117.110382	0
509.405579	107.174858	0
586.134033	113.379608	0
484.518372	113.529625	0
610.423401	108.691017	0
460.386261	108.547646	0
549.384094	185.0979	0
546.508728	142.835068	0
521.96991	168.313599	0
526.404419	146.897003	0



TRIANGLE_STRIPS 581 2324

3	112	2	3
3	128	115	112
3	129	114	128
3	113	5	6
3	130	15	16
3	50	0	10
3	30	1	31
3	115	31	2
3	128	29	115
3	126	114	113
3	121	113	33
3	126	113	121
3	132	26	126
3	125	121	34
3	120	119	23
3	119	118	22
3	118	21	22
3	122	20	21
3	123	117	19
3	117	116	18
3	116	17	18
3	124	16	17
3	133	14	15
3	46	13	14
3	47	12	13
3	48	11	12
3	49	10	11
3	115	2	112
3	114	32	5
3	51	7	52
3	50	51	0
3	49	50	10
3	48	49	11
3	47	48	12
3	46	47	13
3	45	46	14
3	133	44	45
3	130	43	44
3	124	42	43
3	116	41	42
3	117	40	41
3	123	39	40
3	122	38	39
3	118	37	38
3	119	36	37
3	120	35	36
3	125	35	120
3	121	33	34
3	52	0	51
3	112	3	4
3	129	4	32
3	127	114	126
3	113	6	33
3	128	114	127
3	114	5	113
3	115	29	30
3	115	30	31
3	124	116	42
3	117	18	19
3	117	41	116
3	123	19	20
3	122	118	38
3	119	22	23
3	119	37	118
3	120	23	24
3	120	36	119
3	131	125	120
3	125	34	35
3	132	126	121
3	123	122	39
3	122	21	118
3	123	40	117
3	123	20	122
3	130	124	43
3	124	17	116
3	131	120	24
3	132	125	131
3	126	26	27
3	127	126	27
3	127	27	28
3	128	127	28
3	128	28	29
3	129	128	112
3	129	112	4
3	129	32	114
3	133	130	44
3	130	16	124
3	131	24	25
3	132	131	25
3	132	25	26
3	132	121	125
3	133	45	14
3	133	15	130
3	134	111	9
3	134	1	30
3	199	30	29
3	251	245	185
3	136	135	28
3	137	136	27
3	138	137	26
3	139	138	25
3	140	139	24
3	141	140	23
3	142	141	22
3	143	142	21
3	144	143	20
3	145	144	19
3	146	145	18
3	147	146	17
3	148	147	16
3	149	148	15
3	254	182	150
3	254	151	56
3	228	55	151
3	54	11	10
3	10	0	53
3	90	8	91
3	92	89	90
3	200	93	152
3	256	153	152
3	153	87	152
3	154	86	153
3	155	85	154
3	156	84	155
3	157	83	156
3	158	82	157
3	159	81	158
3	160	80	159
3	161	79	160
3	162	78	161
3	163	77	162
3	164	76	163
3	165	75	164
3	166	74	165
3	167	73	166
3	168	72	167
3	296	242	280
3	205	168	201
3	206	169	205
3	207	170	206
3	208	171	207
3	209	172	208
3	210	173	209
3	211	174	210
3	212	175	211
3	213	176	212
3	214	178	177
3	215	179	178
3	216	181	180
3	217	182	181
3	254	150	151
3	151	55	56
3	228	54	55
3	53	54	10
3	134	9	1
3	183	111	134
3	299	296	280
3	184	110	183
3	258	257	201
3	261	258	219
3	263	261	220
3	266	264	203
3	268	266	222
3	248	232	190
3	303	293	291
3	295	274	230
3	250	233	194
3	276	226	233
3	202	197	196
3	249	198	197
3	256	198	153
3	256	152	94
3	152	93	94
3	200	92	93
3	91	92	90
3	199	29	135
3	242	136	239
3	135	29	28
3	136	28	27
3	137	27	26
3	169	71	168
3	138	26	25
3	170	70	169
3	139	25	24
3	171	69	170
3	140	24	23
3	172	68	171
3	141	23	22
3	173	67	172
3	142	22	21
3	174	66	173
3	143	21	20
3	175	65	174
3	144	20	19
3	176	64	175
3	145	19	18
3	177	63	176
3	146	18	17
3	178	62	177
3	147	17	16
3	179	61	178
3	148	16	15
3	218	180	179
3	149	15	14
3	217	181	216
3	150	149	14
3	182	149	150
3	150	14	13
3	151	150	13
3	151	13	12
3	228	151	12
3	152	87	88
3	200	152	88
3	198	154	153
3	153	86	87
3	249	197	202
3	154	85	86
3	278	227	202
3	155	84	85
3	195	99	194
3	156	83	84
3	194	100	193
3	157	82	83
3	193	101	192
3	158	81	82
3	192	102	191
3	159	80	81
3	191	103	190
3	160	79	80
3	190	104	189
3	161	78	79
3	189	105	188
3	162	77	78
3	188	106	187
3	163	76	77
3	187	107	186
3	164	75	76
3	186	108	185
3	165	74	75
3	185	109	184
3	166	73	74
3	239	137	234
3	167	72	73
3	336	325	335
3	168	71	72
3	333	325	297
3	169	70	71
3	304	259	302
3	170	69	70
3	332	330	317
3	171	68	69
3	320	309	318
3	172	67	68
3	305	287	290
3	173	66	67
3	271	211	269
3	174	65	66
3	321	292	271
3	175	64	65
3	294	275	273
3	176	63	64
3	277	236	241
3	177	62	63
3	279	216	218
3	178	61	62
3	218	216	180
3	179	60	61
3	180	59	60
3	180	60	179
3	181	58	59
3	181	59	180
3	182	57	58
3	182	58	181
3	183	110	111
3	255	134	199
3	219	201	167
3	184	109	110
3	220	219	166
3	185	108	109
3	221	164	203
3	186	107	108
3	247	187	229
3	187	106	107
3	222	203	163
3	188	105	106
3	223	222	162
3	189	104	105
3	224	160	204
3	190	103	104
3	246	191	232
3	191	102	103
3	225	204	159
3	192	101	102
3	226	225	158
3	193	100	101
3	227	156	202
3	194	99	100
3	278	233	227
3	195	98	99
3	196	97	98
3	196	98	195
3	197	96	97
3	197	97	196
3	198	95	96
3	198	96	197
3	199	134	30
3	252	135	242
3	200	88	89
3	200	89	92
3	201	168	167
3	219	167	166
3	202	156	155
3	249	202	155
3	203	164	163
3	222	163	162
3	204	160	159
3	225	159	158
3	260	206	259
3	205	169	168
3	240	139	140
3	206	170	169
3	262	207	260
3	207	171	170
3	240	140	237
3	208	172	171
3	237	141	235
3	209	173	172
3	269	211	210
3	210	174	173
3	244	143	238
3	211	175	174
3	238	144	236
3	212	176	175
3	275	214	213
3	213	177	176
3	277	241	215
3	214	177	213
3	279	218	241
3	215	178	214
3	216	147	148
3	217	216	148
3	217	148	149
3	217	149	182
3	218	179	215
3	241	218	215
3	220	166	165
3	245	229	186
3	221	220	165
3	264	263	221
3	221	165	164
3	247	231	188
3	223	162	161
3	248	189	231
3	224	223	161
3	270	268	223
3	224	161	160
3	274	272	204
3	226	158	157
3	250	193	230
3	227	226	157
3	233	226	227
3	227	157	156
3	278	202	196
3	228	12	11
3	228	11	54
3	229	187	186
3	245	186	185
3	230	193	192
3	246	192	191
3	231	189	188
3	247	188	187
3	232	191	190
3	248	190	189
3	233	195	194
3	250	194	193
3	234	137	138
3	243	138	139
3	235	141	142
3	244	142	143
3	236	144	145
3	241	236	145
3	267	209	265
3	237	140	141
3	275	238	236
3	238	143	144
3	259	205	257
3	239	136	137
3	330	304	328
3	243	139	240
3	241	145	146
3	279	241	146
3	302	257	300
3	242	135	136
3	265	208	262
3	243	234	138
3	294	273	271
3	244	235	142
3	251	185	184
3	329	323	326
3	295	293	270
3	246	230	192
3	312	263	311
3	310	266	306
3	319	316	311
3	306	303	291
3	249	155	154
3	249	154	198
3	274	250	230
3	276	250	274
3	253	184	183
3	301	300	258
3	322	255	252
3	252	199	135
3	253	251	184
3	255	253	183
3	254	56	57
3	254	57	182
3	255	183	134
3	255	199	252
3	256	94	95
3	256	95	198
3	257	205	201
3	258	201	219
3	261	219	220
3	289	285	245
3	281	280	239
3	259	206	205
3	282	281	234
3	260	207	206
3	263	220	221
3	285	283	229
3	284	282	243
3	262	208	207
3	264	221	203
3	311	264	310
3	266	203	222
3	286	247	283
3	287	284	240
3	265	209	208
3	268	222	223
3	288	231	286
3	321	305	290
3	267	210	209
3	270	223	224
3	303	270	293
3	321	271	269
3	269	210	267
3	272	270	224
3	295	270	272
3	294	271	292
3	271	212	211
3	272	224	204
3	295	272	274
3	273	213	212
3	273	212	271
3	274	204	225
3	276	274	225
3	277	275	236
3	275	213	273
3	276	225	226
3	276	233	250
3	277	215	214
3	277	214	275
3	278	196	195
3	278	195	233
3	279	146	147
3	279	147	216
3	280	242	239
3	281	239	234
3	282	234	243
3	308	260	304
3	284	243	240
3	332	318	309
3	283	247	229
3	285	229	245
3	287	240	237
3	307	305	267
3	289	245	251
3	329	314	313
3	319	306	288
3	286	231	247
3	290	287	237
3	320	305	307
3	306	268	303
3	288	248	231
3	297	251	253
3	313	289	298
3	290	237	235
3	292	290	235
3	291	232	248
3	291	248	288
3	292	235	244
3	294	292	244
3	293	246	232
3	293	232	291
3	294	244	238
3	294	238	275
3	295	230	246
3	295	246	293
3	335	322	296
3	296	252	242
3	297	289	251
3	333	253	322
3	336	327	334
3	298	289	297
3	315	280	281
3	327	326	323
3	300	257	258
3	301	258	261
3	331	316	314
3	329	326	301
3	330	328	324
3	302	259	257
3	306	291	288
3	303	268	270
3	330	324	315
3	304	260	259
3	305	269	267
3	307	267	265
3	319	310	306
3	306	266	268
3	309	265	262
3	320	307	309
3	332	309	308
3	308	262	260
3	309	307	265
3	309	262	308
3	319	311	310
3	310	264	266
3	331	311	316
3	311	263	264
3	312	301	261
3	312	261	263
3	313	285	289
3	323	313	298
3	314	283	285
3	314	285	313
3	315	299	280
3	317	315	281
3	316	286	283
3	316	283	314
3	317	281	282
3	318	317	282
3	318	282	284
3	320	318	284
3	319	288	286
3	319	286	316
3	320	284	287
3	320	287	305
3	321	269	305
3	321	290	292
3	322	253	255
3	322	252	296
3	334	298	325
3	334	327	323
3	327	302	300
3	324	299	315
3	335	325	322
3	325	298	297
3	326	300	301
3	329	301	312
3	328	327	324
3	327	300	326
3	328	304	302
3	328	302	327
3	331	329	312
3	329	313	323
3	330	315	317
3	330	308	304
3	331	314	329
3	331	312	311
3	332	308	330
3	332	317	318
3	333	297	253
3	333	322	325
3	336	334	325
3	334	323	298
3	335	296	299
3	336	335	299
3	336	299	324
3	336	324	327


POINT_DATA 337
SCALARS Temperature_field(°C) float
LOOKUP_TABLE default
5.02606674
25
25
25
21.02456769
5
5
5
24.99911533
25
5.062685559
5.12314833
5.205969254
5.305470117
5.414729233
5.567640185
5.750582046
5.956884742
6.183183875
6.458702005
6.799078558
7.188682016
7.652702658
8.205074133
8.948704454
9.959294727
11.35540166
13.28269096
16.02133232
19.29236024
22.33152097
25
5
5
5
5
5
5
5
5
5
5
5
5
5
5
5
5
5
5
5
5
5.004131551
5.077847314
5.175940799
5.328141916
5.53936285
5.819673001
6.178275092
6.616476348
7.141341714
7.755321038
8.460445795
9.254849408
10.13365006
11.08826946
12.1058971
13.17025069
14.26207318
15.3600878
16.44284491
17.49043522
18.48578902
19.41544278
20.26994379
21.04370529
21.73445756
22.34268814
22.87130835
23.32482187
23.70820309
24.0268962
24.28693229
24.49467284
24.65684761
24.77968984
24.86909988
24.92939137
24.96611859
24.98874856
24.99825312
25
25
24.97910465
25
25
24.92229869
25
25
24.82615896
25
25
25
24.63441525
25
25
25
25
25
25
25
25
20.9998278
7.334667095
11.44965187
21.60380401
5.592927293
5.732706116
6.300128846
6.631014853
7.092777272
7.20635275
6.071780053
5.883242433
5.463636201
6.930227345
10.43823198
13.58350271
17.08983412
9.761336196
5.363400477
8.410098414
9.040972225
5.279282247
23.36360795
18.02772202
15.54700511
13.49156105
11.88133408
10.63105886
9.657715786
8.889342681
8.263965286
7.738990644
7.281302861
6.879168859
6.517835724
6.229581315
5.975323758
5.759773708
5.569816219
5.405483683
24.95992055
24.90825572
24.83280915
24.73242377
24.59500137
24.41076314
24.18058469
23.89653323
23.54995476
23.13431649
22.64577982
22.07939937
21.43078817
20.69814103
19.88212879
18.98634364
18.01809133
16.98891013
15.91436777
14.81344256
13.70760907
12.61915489
11.56926865
10.57575332
9.653623353
8.813858709
8.066434974
7.414300394
6.842191277
6.351465708
5.915407369
23.47715965
23.73247707
23.95872697
24.1111234
24.2315479
24.3302973
24.40400149
24.41561738
24.48724661
24.61732292
24.68521849
24.71062246
24.76971042
24.83829748
24.86511412
24.89841157
20.69524093
24.97861459
18.58641962
24.72504799
21.85946034
23.80582154
17.57068683
16.49706813
15.38387943
14.25265069
13.12808102
12.03629754
10.97106977
9.986653551
9.112585149
8.331846135
7.649960002
6.461752392
6.090477899
7.038634517
19.53023225
20.39271497
21.16961398
22.4615173
22.99582243
23.44356648
24.10759569
24.35196321
24.55251963
5.245105544
23.36529393
24.32896224
23.75931711
24.04698387
24.5452548
13.61570287
9.404023281
7.638641239
10.18395205
8.171987502
15.27465329
11.11104308
7.185115983
17.20216958
12.23740237
8.751010508
23.10308117
24.19184027
23.58101776
23.90466937
24.81193134
24.44991301
22.72334235
19.34371738
22.02279876
5.64490341
21.51573765
24.95434028
18.20508233
19.20817274
17.12862764
15.99749943
20.12752801
14.80474499
20.97642398
21.70849106
13.61541544
22.33281001
12.49130255
22.89838812
11.36744349
23.43469395
10.19964048
23.74594109
9.381124677
24.09556723
8.519575781
24.3124876
7.861056676
24.68676034
6.684686265
16.66134449
15.10750911
13.71698229
22.73647068
12.52041363
22.38299456
23.02344451
11.49133656
23.27208305
21.95747771
10.5663938
23.52407888
9.802649185
23.73246411
9.13299301
23.92541038
18.33165806
21.40442807
20.73672586
17.74119351
18.91095408
19.89610793
17.82170477
23.29424768
16.66595554
11.7742268
22.86912323
12.93776738
15.43315755
14.04713838
22.23944797
21.70537714
20.81131555
21.27372831
21.79616783
16.36506327
22.20695154
15.02551617
13.83228848
22.55717862
12.76833248
10.73881598
20.15738973
20.11099936
17.51897279
20.06503994
19.66953215
18.71517254
17.38471811
20.70967696
16.1855224
21.44816041
14.9030995
20.90518836
19.65757506
18.9961755
18.76991258

