# vtk DataFile Version 1.0
3D triangulation data
ASCII

DATASET POLYDATA
POINTS 14 float
12.00 5.639999870000000 0.00 
15.00 5.099999900000000 0.00 
17.00 4.739999770000000 0.00 
15.00 0.899999976000000 0.00 
10.00 1.799999950000000 0.00 
8.00 5.639999870000000 0.00 
10.00 6.00 0.00 
20.00 4.199999810000000 0.00 
20.00 0.00 0.00 
5.00 0.899999976000000 0.00 
5.00 5.099999900000000 0.00 
3.00 4.739999770000000 0.00 
0.00 0.00 0.00 
0.00 4.199999810000000 0.00

LINES 25 75
2 0 1
2 1 2
2 2 3
2 4 3
2 5 4
2 5 6
2 6 0
2 0 4
2 4 6
2 3 0
2 3 1
2 2 7
2 8 2
2 8 7
2 3 8
2 9 4
2 9 10
2 11 10
2 12 11
2 12 9
2 9 5
2 11 9
2 10 5
2 13 11
2 12 13

POINT_DATA 14
VECTORS Displacements float
-0.000335633581229536 -0.00322827094989269 0.00
-0.000719886754102514	-0.00286182163478421 0.00
-0.000822300415702405	-0.00176332732335303 0.00
1.23567806464712e-05	-0.00265182168364890 0.00
4.99972789541907e-19	-0.00335362486498425 0.00
0.000335633581229535	-0.00322827094989269 0.00
-6.17948612463601e-19	-0.00331100380002134 0.00
-0.000542701516499891	-0.000209999990500000 0.00
1.00000000000000e-33	0.00 0.00
-1.23567806464697e-05	-0.00265182168364890 0.00
0.000719886754102515	-0.00286182163478422 0.00
0.000822300415702406	-0.00176332732335303 0.00
1.00000000000000e-33	0.00 0.00
0.000542701516499892	-0.000209999990500000 0.00
