# vtk DataFile Version 1.0
3D triangulation data
ASCII

DATASET POLYDATA
POINTS 14 float
12.00 5.639999870000000 0.00 
15.00 5.099999900000000 0.00 
17.00 4.739999770000000 0.00 
15.00 0.899999976000000 0.00 
10.00 1.799999950000000 0.00 
8.00 5.639999870000000 0.00 
10.00 6.00 0.00 
20.00 4.199999810000000 0.00 
20.00 0.00 0.00 
5.00 0.899999976000000 0.00 
5.00 5.099999900000000 0.00 
3.00 4.739999770000000 0.00 
0.00 0.00 0.00 
0.00 4.199999810000000 0.00

LINES 25 75
2 0 1
2 1 2
2 2 3
2 4 3
2 5 4
2 5 6
2 6 0
2 0 4
2 4 6
2 3 0
2 3 1
2 2 7
2 8 2
2 8 7
2 3 8
2 9 4
2 9 10
2 11 10
2 12 11
2 12 9
2 9 5
2 11 9
2 10 5
2 13 11
2 12 13

POINT_DATA 14
VECTORS InnerForces float
-2907.14050162516 0.00	0.00
-2904.49613768529	0.00	0.00
1859.81339971468	0.00	0.00
-441.378448493422	0.00	0.00
-202.548784064765	0.00	0.00
-3395.24768540394	0.00	0.00
-3395.24768540831	0.00	0.00
-202.548784064765	0.00	0.00
202.957449787015	0.00	0.00
-1072.98746618211	0.00	0.00
-999.695812946326	0.00	0.00
2.68091737121371	0.00	0.00
-3743.48773937856	0.00	0.00
-999.833027385692	0.00	0.00
-1894.63232390041	0.00	0.00
-441.378448489926	0.00	0.00
-999.695812946326	0.00	0.00
-2904.49613768529	0.00	0.00	
-3743.48773937856	0.00	0.00
-1894.63232390041	0.00	0.00
-1072.98746618211	0.00	0.00
1859.81339971058	0.00	0.00
-2907.14050161933	0.00	0.00
2.68091737995501	0.00	0.00
-999.833027385692	0.00	0.00


